{
  "Maths": [
    {"question": "What is the derivative of x³?", "answer": "3x²"},
    {"question": "What is the integral of 2x dx?", "answer": "x² + C"},
    {"question": "What is lim (x→0) sin(x)/x ?", "answer": "1"},
    {"question": "What is the value of log₁₀(1000)?", "answer": "3"},
    {"question": "What is the quadratic formula?", "answer": "x = [-b ± √(b²-4ac)] / (2a)"},
    {"question": "What is sin(90°)?", "answer": "1"},
    {"question": "What is the area of a circle with radius r?", "answer": "πr²"},
    {"question": "What is the Pythagorean theorem?", "answer": "a² + b² = c² (in right triangle)"},
    {"question": "What is 15% of 240?", "answer": "36"},
    {"question": "What is the slope of the line y = 3x - 7?", "answer": "3"},
    {"question": "What is the factorial of 5 (5!)?", "answer": "120"},
    {"question": "What is the sum of interior angles of a triangle?", "answer": "180°"},
    {"question": "What is the mean of {4, 7, 2, 9, 3}?", "answer": "5"},
    {"question": "What is cos(0)?", "answer": "1"},
    {"question": "What is the determinant of [[1,2],[3,4]]?", "answer": "-2"},
    {"question": "What is the value of e⁰?", "answer": "1"},
    {"question": "What is the circumference of a circle with diameter 10?", "answer": "10π"},
    {"question": "What is tan(45°)?", "answer": "1"},
    {"question": "What is the volume of a cube with side length 6?", "answer": "216"},
    {"question": "What is the solution to 2x + 5 = 17?", "answer": "x = 6"},
    {"question": "What is the probability of rolling a 6 on a fair die?", "answer": "1/6 ≈ 0.1667"},
    {"question": "What is the 10th Fibonacci number? (starting F₁=1, F₂=1)", "answer": "55"}
  ],
  "Physics": [
    {"question": "What is Newton's First Law also known as?", "answer": "Law of Inertia"},
    {"question": "What does F = ma represent?", "answer": "Newton's Second Law"},
    {"question": "What is the SI unit of force?", "answer": "Newton (N)"},
    {"question": "What is the acceleration due to gravity on Earth (approx)?", "answer": "9.81 m/s²"},
    {"question": "What is the formula for kinetic energy?", "answer": "KE = ½mv²"},
    {"question": "What is the unit of electric current?", "answer": "Ampere (A)"},
    {"question": "What law states that for every action there is an equal and opposite reaction?", "answer": "Newton's Third Law"},
    {"question": "What is the speed of light in vacuum (approx)?", "answer": "3.00 × 10⁸ m/s"},
    {"question": "What is the formula for gravitational force?", "answer": "F = G(m₁m₂)/r²"},
    {"question": "What is the SI unit of energy?", "answer": "Joule (J)"},
    {"question": "What is the power formula in electricity?", "answer": "P = VI"},
    {"question": "What quantity is measured in watts?", "answer": "Power"},
    {"question": "What is the formula for work done?", "answer": "W = F × d × cosθ"},
    {"question": "What is the unit of pressure in SI?", "answer": "Pascal (Pa)"},
    {"question": "What is the focal length of a plane mirror?", "answer": "Infinity"},
    {"question": "What principle explains why a helium balloon rises in air?", "answer": "Archimedes' principle / buoyancy"},
    {"question": "What is the formula for momentum?", "answer": "p = mv"},
    {"question": "What is the unit of frequency?", "answer": "Hertz (Hz)"},
    {"question": "What is the relationship between frequency, wavelength and speed of wave?", "answer": "v = fλ"},
    {"question": "What is the boiling point of water at standard pressure?", "answer": "100°C"},
    {"question": "What conserves in an isolated system during collisions (elastic)?", "answer": "Both momentum and kinetic energy"},
    {"question": "What is the symbol for Planck's constant?", "answer": "h"}
  ],
  "JavaScript": [
    {"question": "What does NaN stand for?", "answer": "Not-a-Number"},
    {"question": "How do you create a variable that cannot be reassigned?", "answer": "const"},
    {"question": "What is the difference between == and ===?", "answer": "=== checks value and type, == only value (with type coercion)"},
    {"question": "What is a closure?", "answer": "Function that remembers its outer scope even after outer function has returned"},
    {"question": "What method adds an element to the end of an array?", "answer": ".push()"},
    {"question": "How do you check the type of a variable?", "answer": "typeof"},
    {"question": "What is the output of console.log(typeof null)?", "answer": "object"},
    {"question": "What does async/await help avoid?", "answer": "Callback hell / pyramid of doom"},
    {"question": "What is hoisting in JavaScript?", "answer": "Variable and function declarations are moved to the top of their scope"},
    {"question": "What is the spread operator syntax?", "answer": "... (three dots)"},
    {"question": "How do you create an immediately invoked function expression (IIFE)?", "answer": "(function(){ ... })()"},
    {"question": "What method converts a string to an array of characters?", "answer": ".split('')"},
    {"question": "What is the difference between let and var?", "answer": "let is block-scoped, var is function-scoped"},
    {"question": "What does JSON.stringify() do?", "answer": "Converts a JavaScript object to a JSON string"},
    {"question": "How do you remove the last element from an array?", "answer": ".pop()"},
    {"question": "What is event delegation?", "answer": "Attaching a single event listener to a parent instead of many to children"},
    {"question": "What is a Promise?", "answer": "Object representing eventual completion/failure of an async operation"},
    {"question": "What method chains array transformations?", "answer": ".map() .filter() .reduce() etc."},
    {"question": "How do you check if a value is an array?", "answer": "Array.isArray(value)"},
    {"question": "What is the optional chaining operator?", "answer": "?. (question mark dot)"},
    {"question": "What does the nullish coalescing operator (??) do?", "answer": "Returns right-hand value only if left is null or undefined"},
    {"question": "What is destructuring assignment?", "answer": "Extracting values from arrays/objects into variables in one line"}
  ],
  "C++": [
    {"question": "What is the correct way to include iostream?", "answer": "#include <iostream>"},
    {"question": "What does std stand for?", "answer": "standard namespace"},
    {"question": "How do you declare a constant variable?", "answer": "const int x = 10;"},
    {"question": "What is the difference between struct and class?", "answer": "Default access: struct = public, class = private"},
    {"question": "What keyword is used for dynamic memory allocation?", "answer": "new"},
    {"question": "How do you free memory allocated with new[]?", "answer": "delete[]"},
    {"question": "What is a pointer?", "answer": "Variable that stores a memory address"},
    {"question": "What does & mean before a variable name in a function parameter?", "answer": "Pass by reference"},
    {"question": "What is the purpose of virtual keyword in a function?", "answer": "Enables polymorphism (dynamic dispatch)"},
    {"question": "What is a destructor called with?", "answer": "~ClassName()"},
    {"question": "What header is needed for std::vector?", "answer": "#include <vector>"},
    {"question": "What does STL stand for?", "answer": "Standard Template Library"},
    {"question": "How do you write a range-based for loop?", "answer": "for(auto &elem : container) {...}"},
    {"question": "What is the default access specifier in a class?", "answer": "private"},
    {"question": "What does constexpr mean?", "answer": "Expression can be evaluated at compile time"},
    {"question": "What is a smart pointer?", "answer": "RAII wrapper that automatically manages memory (unique_ptr, shared_ptr)"},
    {"question": "How do you declare a template function?", "answer": "template<typename T> ..."},
    {"question": "What is operator overloading?", "answer": "Defining custom behavior for operators on user-defined types"},
    {"question": "What does inline keyword suggest to the compiler?", "answer": "Prefer to inline the function (avoid function call overhead)"},
    {"question": "What is the difference between new and malloc()?", "answer": "new calls constructor, malloc() does not"},
    {"question": "What header provides std::cout and std::cin?", "answer": "<iostream>"},
    {"question": "What is a lambda expression in C++?", "answer": "[capture](params){body}"}
  ],
  "Chemistry": [
    {"question": "What is the atomic number of carbon?", "answer": "6"},
    {"question": "What is the chemical symbol for gold?", "answer": "Au"},
    {"question": "What is the pH of a neutral solution at 25°C?", "answer": "7"},
    {"question": "What gas do plants absorb during photosynthesis?", "answer": "Carbon dioxide (CO₂)"},
    {"question": "What is the most abundant gas in Earth's atmosphere?", "answer": "Nitrogen (≈78%)"},
    {"question": "What is Avogadro's number?", "answer": "6.022 × 10²³ particles/mol"},
    {"question": "What type of bond involves sharing of electrons?", "answer": "Covalent bond"},
    {"question": "What is the formula of water?", "answer": "H₂O"},
    {"question": "What is the SI unit of amount of substance?", "answer": "Mole (mol)"},
    {"question": "What element has the symbol Fe?", "answer": "Iron"},
    {"question": "What is the process of conversion of solid directly to gas called?", "answer": "Sublimation"},
    {"question": "What is the functional group in alcohols?", "answer": "-OH (hydroxyl group)"},
    {"question": "What acid is present in lemon juice?", "answer": "Citric acid"},
    {"question": "What is the oxidation state of oxygen in most compounds?", "answer": "-2"},
    {"question": "What law states that mass is conserved in chemical reactions?", "answer": "Law of Conservation of Mass"},
    {"question": "What is the chemical formula of table salt?", "answer": "NaCl"},
    {"question": "What type of reaction releases heat?", "answer": "Exothermic"},
    {"question": "What is the monomer of polyethylene?", "answer": "Ethene / Ethylene (C₂H₄)"},
    {"question": "What element is a liquid at room temperature and used in thermometers?", "answer": "Mercury (Hg)"},
    {"question": "What is the term for a solution that can dissolve more solute?", "answer": "Unsaturated"},
    {"question": "What gas turns limewater milky?", "answer": "Carbon dioxide (CO₂)"},
    {"question": "What is the atomic number of oxygen?", "answer": "8"}
  ]
}